# vtk DataFile Version 3.0
VTK output for triangular mesh with displacement fields
ASCII
DATASET UNSTRUCTURED_GRID
POINTS 1331 float
50.0 50.0 50.0
50.0 45.0 50.0
50.0 40.0 50.0
50.0 35.0 50.0
50.0 30.0 50.0
50.0 25.0 50.0
50.0 20.0 50.0
50.0 15.0 50.0
50.0 10.0 50.0
50.0 5.0 50.0
50.0 0.0 50.0
50.0 50.0 45.0
50.0 45.0 45.0
50.0 40.0 45.0
50.0 35.0 45.0
50.0 30.0 45.0
50.0 25.0 45.0
50.0 20.0 45.0
50.0 15.0 45.0
50.0 10.0 45.0
50.0 5.0 45.0
50.0 0.0 45.0
50.0 50.0 40.0
50.0 45.0 40.0
50.0 40.0 40.0
50.0 35.0 40.0
50.0 30.0 40.0
50.0 25.0 40.0
50.0 20.0 40.0
50.0 15.0 40.0
50.0 10.0 40.0
50.0 5.0 40.0
50.0 0.0 40.0
50.0 50.0 35.0
50.0 45.0 35.0
50.0 40.0 35.0
50.0 35.0 35.0
50.0 30.0 35.0
50.0 25.0 35.0
50.0 20.0 35.0
50.0 15.0 35.0
50.0 10.0 35.0
50.0 5.0 35.0
50.0 0.0 35.0
50.0 50.0 30.0
50.0 45.0 30.0
50.0 40.0 30.0
50.0 35.0 30.0
50.0 30.0 30.0
50.0 25.0 30.0
50.0 20.0 30.0
50.0 15.0 30.0
50.0 10.0 30.0
50.0 5.0 30.0
50.0 0.0 30.0
50.0 50.0 25.0
50.0 45.0 25.0
50.0 40.0 25.0
50.0 35.0 25.0
50.0 30.0 25.0
50.0 25.0 25.0
50.0 20.0 25.0
50.0 15.0 25.0
50.0 10.0 25.0
50.0 5.0 25.0
50.0 0.0 25.0
50.0 50.0 20.0
50.0 45.0 20.0
50.0 40.0 20.0
50.0 35.0 20.0
50.0 30.0 20.0
50.0 25.0 20.0
50.0 20.0 20.0
50.0 15.0 20.0
50.0 10.0 20.0
50.0 5.0 20.0
50.0 0.0 20.0
50.0 50.0 15.0
50.0 45.0 15.0
50.0 40.0 15.0
50.0 35.0 15.0
50.0 30.0 15.0
50.0 25.0 15.0
50.0 20.0 15.0
50.0 15.0 15.0
50.0 10.0 15.0
50.0 5.0 15.0
50.0 0.0 15.0
50.0 50.0 10.0
50.0 45.0 10.0
50.0 40.0 10.0
50.0 35.0 10.0
50.0 30.0 10.0
50.0 25.0 10.0
50.0 20.0 10.0
50.0 15.0 10.0
50.0 10.0 10.0
50.0 5.0 10.0
50.0 0.0 10.0
50.0 50.0 5.0
50.0 45.0 5.0
50.0 40.0 5.0
50.0 35.0 5.0
50.0 30.0 5.0
50.0 25.0 5.0
50.0 20.0 5.0
50.0 15.0 5.0
50.0 10.0 5.0
50.0 5.0 5.0
50.0 0.0 5.0
50.0 50.0 0.0
50.0 45.0 0.0
50.0 40.0 0.0
50.0 35.0 0.0
50.0 30.0 0.0
50.0 25.0 0.0
50.0 20.0 0.0
50.0 15.0 0.0
50.0 10.0 0.0
50.0 5.0 0.0
50.0 0.0 0.0
45.0 50.0 50.0
45.0 45.0 50.0
45.0 40.0 50.0
45.0 35.0 50.0
45.0 30.0 50.0
45.0 25.0 50.0
45.0 20.0 50.0
45.0 15.0 50.0
45.0 10.0 50.0
45.0 5.0 50.0
45.0 0.0 50.0
45.0 50.0 45.0
45.0 45.0 45.0
45.0 40.0 45.0
45.0 35.0 45.0
45.0 30.0 45.0
45.0 25.0 45.0
45.0 20.0 45.0
45.0 15.0 45.0
45.0 10.0 45.0
45.0 5.0 45.0
45.0 0.0 45.0
45.0 50.0 40.0
45.0 45.0 40.0
45.0 40.0 40.0
45.0 35.0 40.0
45.0 30.0 40.0
45.0 25.0 40.0
45.0 20.0 40.0
45.0 15.0 40.0
45.0 10.0 40.0
45.0 5.0 40.0
45.0 0.0 40.0
45.0 50.0 35.0
45.0 45.0 35.0
45.0 40.0 35.0
45.0 35.0 35.0
45.0 30.0 35.0
45.0 25.0 35.0
45.0 20.0 35.0
45.0 15.0 35.0
45.0 10.0 35.0
45.0 5.0 35.0
45.0 0.0 35.0
45.0 50.0 30.0
45.0 45.0 30.0
45.0 40.0 30.0
45.0 35.0 30.0
45.0 30.0 30.0
45.0 25.0 30.0
45.0 20.0 30.0
45.0 15.0 30.0
45.0 10.0 30.0
45.0 5.0 30.0
45.0 0.0 30.0
45.0 50.0 25.0
45.0 45.0 25.0
45.0 40.0 25.0
45.0 35.0 25.0
45.0 30.0 25.0
45.0 25.0 25.0
45.0 20.0 25.0
45.0 15.0 25.0
45.0 10.0 25.0
45.0 5.0 25.0
45.0 0.0 25.0
45.0 50.0 20.0
45.0 45.0 20.0
45.0 40.0 20.0
45.0 35.0 20.0
45.0 30.0 20.0
45.0 25.0 20.0
45.0 20.0 20.0
45.0 15.0 20.0
45.0 10.0 20.0
45.0 5.0 20.0
45.0 0.0 20.0
45.0 50.0 15.0
45.0 45.0 15.0
45.0 40.0 15.0
45.0 35.0 15.0
45.0 30.0 15.0
45.0 25.0 15.0
45.0 20.0 15.0
45.0 15.0 15.0
45.0 10.0 15.0
45.0 5.0 15.0
45.0 0.0 15.0
45.0 50.0 10.0
45.0 45.0 10.0
45.0 40.0 10.0
45.0 35.0 10.0
45.0 30.0 10.0
45.0 25.0 10.0
45.0 20.0 10.0
45.0 15.0 10.0
45.0 10.0 10.0
45.0 5.0 10.0
45.0 0.0 10.0
45.0 50.0 5.0
45.0 45.0 5.0
45.0 40.0 5.0
45.0 35.0 5.0
45.0 30.0 5.0
45.0 25.0 5.0
45.0 20.0 5.0
45.0 15.0 5.0
45.0 10.0 5.0
45.0 5.0 5.0
45.0 0.0 5.0
45.0 50.0 0.0
45.0 45.0 0.0
45.0 40.0 0.0
45.0 35.0 0.0
45.0 30.0 0.0
45.0 25.0 0.0
45.0 20.0 0.0
45.0 15.0 0.0
45.0 10.0 0.0
45.0 5.0 0.0
45.0 0.0 0.0
40.0 50.0 50.0
40.0 45.0 50.0
40.0 40.0 50.0
40.0 35.0 50.0
40.0 30.0 50.0
40.0 25.0 50.0
40.0 20.0 50.0
40.0 15.0 50.0
40.0 10.0 50.0
40.0 5.0 50.0
40.0 0.0 50.0
40.0 50.0 45.0
40.0 45.0 45.0
40.0 40.0 45.0
40.0 35.0 45.0
40.0 30.0 45.0
40.0 25.0 45.0
40.0 20.0 45.0
40.0 15.0 45.0
40.0 10.0 45.0
40.0 5.0 45.0
40.0 0.0 45.0
40.0 50.0 40.0
40.0 45.0 40.0
40.0 40.0 40.0
40.0 35.0 40.0
40.0 30.0 40.0
40.0 25.0 40.0
40.0 20.0 40.0
40.0 15.0 40.0
40.0 10.0 40.0
40.0 5.0 40.0
40.0 0.0 40.0
40.0 50.0 35.0
40.0 45.0 35.0
40.0 40.0 35.0
40.0 35.0 35.0
40.0 30.0 35.0
40.0 25.0 35.0
40.0 20.0 35.0
40.0 15.0 35.0
40.0 10.0 35.0
40.0 5.0 35.0
40.0 0.0 35.0
40.0 50.0 30.0
40.0 45.0 30.0
40.0 40.0 30.0
40.0 35.0 30.0
40.0 30.0 30.0
40.0 25.0 30.0
40.0 20.0 30.0
40.0 15.0 30.0
40.0 10.0 30.0
40.0 5.0 30.0
40.0 0.0 30.0
40.0 50.0 25.0
40.0 45.0 25.0
40.0 40.0 25.0
40.0 35.0 25.0
40.0 30.0 25.0
40.0 25.0 25.0
40.0 20.0 25.0
40.0 15.0 25.0
40.0 10.0 25.0
40.0 5.0 25.0
40.0 0.0 25.0
40.0 50.0 20.0
40.0 45.0 20.0
40.0 40.0 20.0
40.0 35.0 20.0
40.0 30.0 20.0
40.0 25.0 20.0
40.0 20.0 20.0
40.0 15.0 20.0
40.0 10.0 20.0
40.0 5.0 20.0
40.0 0.0 20.0
40.0 50.0 15.0
40.0 45.0 15.0
40.0 40.0 15.0
40.0 35.0 15.0
40.0 30.0 15.0
40.0 25.0 15.0
40.0 20.0 15.0
40.0 15.0 15.0
40.0 10.0 15.0
40.0 5.0 15.0
40.0 0.0 15.0
40.0 50.0 10.0
40.0 45.0 10.0
40.0 40.0 10.0
40.0 35.0 10.0
40.0 30.0 10.0
40.0 25.0 10.0
40.0 20.0 10.0
40.0 15.0 10.0
40.0 10.0 10.0
40.0 5.0 10.0
40.0 0.0 10.0
40.0 50.0 5.0
40.0 45.0 5.0
40.0 40.0 5.0
40.0 35.0 5.0
40.0 30.0 5.0
40.0 25.0 5.0
40.0 20.0 5.0
40.0 15.0 5.0
40.0 10.0 5.0
40.0 5.0 5.0
40.0 0.0 5.0
40.0 50.0 0.0
40.0 45.0 0.0
40.0 40.0 0.0
40.0 35.0 0.0
40.0 30.0 0.0
40.0 25.0 0.0
40.0 20.0 0.0
40.0 15.0 0.0
40.0 10.0 0.0
40.0 5.0 0.0
40.0 0.0 0.0
35.0 50.0 50.0
35.0 45.0 50.0
35.0 40.0 50.0
35.0 35.0 50.0
35.0 30.0 50.0
35.0 25.0 50.0
35.0 20.0 50.0
35.0 15.0 50.0
35.0 10.0 50.0
35.0 5.0 50.0
35.0 0.0 50.0
35.0 50.0 45.0
35.0 45.0 45.0
35.0 40.0 45.0
35.0 35.0 45.0
35.0 30.0 45.0
35.0 25.0 45.0
35.0 20.0 45.0
35.0 15.0 45.0
35.0 10.0 45.0
35.0 5.0 45.0
35.0 0.0 45.0
35.0 50.0 40.0
35.0 45.0 40.0
35.0 40.0 40.0
35.0 35.0 40.0
35.0 30.0 40.0
35.0 25.0 40.0
35.0 20.0 40.0
35.0 15.0 40.0
35.0 10.0 40.0
35.0 5.0 40.0
35.0 0.0 40.0
35.0 50.0 35.0
35.0 45.0 35.0
35.0 40.0 35.0
35.0 35.0 35.0
35.0 30.0 35.0
35.0 25.0 35.0
35.0 20.0 35.0
35.0 15.0 35.0
35.0 10.0 35.0
35.0 5.0 35.0
35.0 0.0 35.0
35.0 50.0 30.0
35.0 45.0 30.0
35.0 40.0 30.0
35.0 35.0 30.0
35.0 30.0 30.0
35.0 25.0 30.0
35.0 20.0 30.0
35.0 15.0 30.0
35.0 10.0 30.0
35.0 5.0 30.0
35.0 0.0 30.0
35.0 50.0 25.0
35.0 45.0 25.0
35.0 40.0 25.0
35.0 35.0 25.0
35.0 30.0 25.0
35.0 25.0 25.0
35.0 20.0 25.0
35.0 15.0 25.0
35.0 10.0 25.0
35.0 5.0 25.0
35.0 0.0 25.0
35.0 50.0 20.0
35.0 45.0 20.0
35.0 40.0 20.0
35.0 35.0 20.0
35.0 30.0 20.0
35.0 25.0 20.0
35.0 20.0 20.0
35.0 15.0 20.0
35.0 10.0 20.0
35.0 5.0 20.0
35.0 0.0 20.0
35.0 50.0 15.0
35.0 45.0 15.0
35.0 40.0 15.0
35.0 35.0 15.0
35.0 30.0 15.0
35.0 25.0 15.0
35.0 20.0 15.0
35.0 15.0 15.0
35.0 10.0 15.0
35.0 5.0 15.0
35.0 0.0 15.0
35.0 50.0 10.0
35.0 45.0 10.0
35.0 40.0 10.0
35.0 35.0 10.0
35.0 30.0 10.0
35.0 25.0 10.0
35.0 20.0 10.0
35.0 15.0 10.0
35.0 10.0 10.0
35.0 5.0 10.0
35.0 0.0 10.0
35.0 50.0 5.0
35.0 45.0 5.0
35.0 40.0 5.0
35.0 35.0 5.0
35.0 30.0 5.0
35.0 25.0 5.0
35.0 20.0 5.0
35.0 15.0 5.0
35.0 10.0 5.0
35.0 5.0 5.0
35.0 0.0 5.0
35.0 50.0 0.0
35.0 45.0 0.0
35.0 40.0 0.0
35.0 35.0 0.0
35.0 30.0 0.0
35.0 25.0 0.0
35.0 20.0 0.0
35.0 15.0 0.0
35.0 10.0 0.0
35.0 5.0 0.0
35.0 0.0 0.0
30.0 50.0 50.0
30.0 45.0 50.0
30.0 40.0 50.0
30.0 35.0 50.0
30.0 30.0 50.0
30.0 25.0 50.0
30.0 20.0 50.0
30.0 15.0 50.0
30.0 10.0 50.0
30.0 5.0 50.0
30.0 0.0 50.0
30.0 50.0 45.0
30.0 45.0 45.0
30.0 40.0 45.0
30.0 35.0 45.0
30.0 30.0 45.0
30.0 25.0 45.0
30.0 20.0 45.0
30.0 15.0 45.0
30.0 10.0 45.0
30.0 5.0 45.0
30.0 0.0 45.0
30.0 50.0 40.0
30.0 45.0 40.0
30.0 40.0 40.0
30.0 35.0 40.0
30.0 30.0 40.0
30.0 25.0 40.0
30.0 20.0 40.0
30.0 15.0 40.0
30.0 10.0 40.0
30.0 5.0 40.0
30.0 0.0 40.0
30.0 50.0 35.0
30.0 45.0 35.0
30.0 40.0 35.0
30.0 35.0 35.0
30.0 30.0 35.0
30.0 25.0 35.0
30.0 20.0 35.0
30.0 15.0 35.0
30.0 10.0 35.0
30.0 5.0 35.0
30.0 0.0 35.0
30.0 50.0 30.0
30.0 45.0 30.0
30.0 40.0 30.0
30.0 35.0 30.0
30.0 30.0 30.0
30.0 25.0 30.0
30.0 20.0 30.0
30.0 15.0 30.0
30.0 10.0 30.0
30.0 5.0 30.0
30.0 0.0 30.0
30.0 50.0 25.0
30.0 45.0 25.0
30.0 40.0 25.0
30.0 35.0 25.0
30.0 30.0 25.0
30.0 25.0 25.0
30.0 20.0 25.0
30.0 15.0 25.0
30.0 10.0 25.0
30.0 5.0 25.0
30.0 0.0 25.0
30.0 50.0 20.0
30.0 45.0 20.0
30.0 40.0 20.0
30.0 35.0 20.0
30.0 30.0 20.0
30.0 25.0 20.0
30.0 20.0 20.0
30.0 15.0 20.0
30.0 10.0 20.0
30.0 5.0 20.0
30.0 0.0 20.0
30.0 50.0 15.0
30.0 45.0 15.0
30.0 40.0 15.0
30.0 35.0 15.0
30.0 30.0 15.0
30.0 25.0 15.0
30.0 20.0 15.0
30.0 15.0 15.0
30.0 10.0 15.0
30.0 5.0 15.0
30.0 0.0 15.0
30.0 50.0 10.0
30.0 45.0 10.0
30.0 40.0 10.0
30.0 35.0 10.0
30.0 30.0 10.0
30.0 25.0 10.0
30.0 20.0 10.0
30.0 15.0 10.0
30.0 10.0 10.0
30.0 5.0 10.0
30.0 0.0 10.0
30.0 50.0 5.0
30.0 45.0 5.0
30.0 40.0 5.0
30.0 35.0 5.0
30.0 30.0 5.0
30.0 25.0 5.0
30.0 20.0 5.0
30.0 15.0 5.0
30.0 10.0 5.0
30.0 5.0 5.0
30.0 0.0 5.0
30.0 50.0 0.0
30.0 45.0 0.0
30.0 40.0 0.0
30.0 35.0 0.0
30.0 30.0 0.0
30.0 25.0 0.0
30.0 20.0 0.0
30.0 15.0 0.0
30.0 10.0 0.0
30.0 5.0 0.0
30.0 0.0 0.0
25.0 50.0 50.0
25.0 45.0 50.0
25.0 40.0 50.0
25.0 35.0 50.0
25.0 30.0 50.0
25.0 25.0 50.0
25.0 20.0 50.0
25.0 15.0 50.0
25.0 10.0 50.0
25.0 5.0 50.0
25.0 0.0 50.0
25.0 50.0 45.0
25.0 45.0 45.0
25.0 40.0 45.0
25.0 35.0 45.0
25.0 30.0 45.0
25.0 25.0 45.0
25.0 20.0 45.0
25.0 15.0 45.0
25.0 10.0 45.0
25.0 5.0 45.0
25.0 0.0 45.0
25.0 50.0 40.0
25.0 45.0 40.0
25.0 40.0 40.0
[...]
POINT_DATA 1331
VECTORS displacement float
-0.0416873432696 0.0736557170749 -0.0319683775306
-0.103310510516 0.0635361149907 -0.0868925228715
-0.15751208365 0.0249977950007 -0.132870540023
-0.217368528247 -0.0464237816632 -0.188991427422
-0.291704803705 -0.130446016788 -0.269142121077
-0.379465013742 -0.202418923378 -0.373750656843
-0.473781436682 -0.242301642895 -0.493816465139
-0.564194917679 -0.238625332713 -0.614004313946
-0.639291167259 -0.190094023943 -0.716680467129
-0.68896895647 -0.105184294283 -0.785773575306
-0.706341743469 0.0 -0.8101323843
-0.0561466254294 0.138699382544 -0.0275762230158
-0.111270383 0.125729694963 -0.0752498805523
-0.161033675075 0.0883704274893 -0.107901230454
-0.217743858695 0.0292092785239 -0.156420588493
-0.289787590504 -0.0374575257301 -0.234388157725
-0.376205861568 -0.0954562053084 -0.341979891062
-0.47000682354 -0.131350025535 -0.468572556973
-0.560505628586 -0.137416765094 -0.596886277199
-0.63597714901 -0.112809024751 -0.707212626934
-0.686024606228 -0.0633333623409 -0.781703948975
-0.703546345234 0.0 -0.808003425598
-0.0832042992115 0.209237426519 -0.0108496528119
-0.119729429483 0.194841757417 -0.0425118245184
-0.154567137361 0.15668463707 -0.0583052672446
-0.202476322651 0.100681148469 -0.0967014431953
-0.269642919302 0.0394488312304 -0.168454200029
-0.354484170675 -0.0145585704595 -0.272249549627
-0.449012905359 -0.051833063364 -0.396611690521
-0.541579842567 -0.0671130791306 -0.523686468601
-0.619441866875 -0.0600618012249 -0.63338547945
-0.671326577663 -0.0350253619254 -0.707600772381
-0.689531564713 0.0 -0.733825027943
-0.0802022367716 0.256572365761 0.0201490521431
-0.0953766182065 0.241260111332 0.0179002638906
-0.11212863028 0.20073518157 0.019664125517
-0.149261966348 0.145838677883 -0.00706319790334
-0.210037380457 0.0873447358608 -0.0700435787439
-0.292102575302 0.0352337621152 -0.165679350495
-0.386468976736 -0.00324145983905 -0.281955212355
-0.480464160442 -0.0243188105524 -0.401401996613
-0.560296356678 -0.0280148014426 -0.504742741585
-0.613781750202 -0.0178406033665 -0.574723660946
-0.632594168186 0.0 -0.599460840225
-0.0121745178476 0.255595743656 0.0566167496145
-0.0096750324592 0.241445422173 0.0925080627203
-0.0115483719856 0.20275105536 0.11144091934
-0.0385063029826 0.15194901824 0.0957667306066
-0.0929235816002 0.0987182632089 0.042637694627
-0.171736866236 0.0511774346232 -0.0422947593033
-0.265236288309 0.0151100372896 -0.146835312247
-0.359914988279 -0.00656016450375 -0.254578620195
-0.441080003977 -0.0139849027619 -0.347867399454
-0.495741575956 -0.0101064192131 -0.41104760766
-0.515012800694 0.0 -0.433380305767
0.129548475146 0.197365492582 0.0878547430038
0.143190488219 0.187259986997 0.16005975008
0.149767667055 0.156787216663 0.193567201495
0.129796773195 0.116156153381 0.187299460173
0.0802933871746 0.0733784213662 0.144055560231
0.00438764644787 0.0352267064154 0.0712928250432
-0.0879347100854 0.00656502600759 -0.0191783178598
-0.182666987181 -0.0100889578462 -0.11257583648
-0.264500707388 -0.01480425708 -0.193422019482
-0.319850623608 -0.0100220171735 -0.248146131635
-0.339403063059 0.0 -0.267483413219
0.328866779804 0.0910942927003 0.105164818466
0.346724957228 0.0873574018478 0.201253965497
0.355070352554 0.0708424970508 0.243636056781
0.338184118271 0.0461695045233 0.244296699762
0.291423618793 0.0189306344837 0.210560366511
0.217503592372 -0.00529084773734 0.15094153583
0.12620395422 -0.0221543330699 0.0762432068586
0.0316975601017 -0.0292336959392 -0.00090269476641
-0.0503804720938 -0.0263402406126 -0.067616045475
-0.106069780886 -0.0154042728245 -0.112731568515
-0.125770881772 0.0 -0.128665417433
0.55124849081 -0.0398813337088 0.103569209576
0.568005979061 -0.0361815877259 0.20384824276
0.573136091232 -0.0358372367918 0.246990904212
0.556054413319 -0.0415290445089 0.251522958279
0.510010242462 -0.0505895763636 0.2268037498
0.437027215958 -0.0585573725402 0.181150302291
0.346373409033 -0.0613896548748 0.123633943498
0.252127885818 -0.0565568096936 0.0642576292157
0.170021668077 -0.0435099601746 0.0129779484123
0.114204719663 -0.0236671697348 -0.0216629318893
0.0944397598505 0.0 -0.033890388906
0.753484010696 -0.164959311485 0.0825054347515
0.766476154327 -0.154361054301 0.165153890848
0.766201019287 -0.138053923845 0.200257703662
0.747142612934 -0.125832334161 0.20550711453
0.700542926788 -0.117820695043 0.189337223768
0.627714276314 -0.110544227064 0.158393576741
0.537332355976 -0.100133180618 0.11926536262
0.443262308836 -0.0838834643364 0.0789013057947
0.361196428537 -0.0608828924596 0.0440854392946
0.305351048708 -0.0320968329906 0.0205894205719
0.285565704107 0.0 0.0123000675812
0.89446747303 -0.254393309355 0.0456525459886
0.903812408447 -0.238940358162 0.09222894907
0.898845970631 -0.211272016168 0.111889027059
0.877723813057 -0.186299607158 0.115250661969
0.830265700817 -0.166153341532 0.107265584171
0.757260918617 -0.148045703769 0.0916266143322
0.666929483414 -0.128203213215 0.0718089938164
0.572940468788 -0.103775121272 0.051378108561
0.490913301706 -0.0735828280449 0.0337713845074
0.43507194519 -0.0382773764431 0.0218972992152
0.415283381939 0.0 0.0177095979452
0.94497859478 -0.286791831255 0.0
0.952855288982 -0.269593268633 0.0
0.946062088013 -0.23781748116 0.0
0.924090743065 -0.20823378861 0.0
0.876248300076 -0.183700174093 0.0
0.803133130074 -0.161676898599 0.0
0.712795495987 -0.13842189312 0.0
0.618827044964 -0.111028559506 0.0
0.536813914776 -0.078220769763 0.0
0.480976879597 -0.0405368320644 0.0
0.461188584566 0.0 0.0
-0.0359598919749 0.143039152026 -0.0353888608515
-0.0903808325529 0.12909181416 -0.085328862071
-0.1319642663 0.0890462473035 -0.130205497146
-0.184606537223 0.0242380294949 -0.186873272061
-0.257102638483 -0.0498541221023 -0.267766535282
-0.348293155432 -0.114742636681 -0.372939348221
-0.44971126318 -0.15480093658 -0.4932115376
-0.548886239529 -0.160861358047 -0.61329972744
-0.632214426994 -0.131699189544 -0.715712547302
-0.68769878149 -0.0738587155938 -0.784556210041
-0.707159042358 0.0 -0.808814823627
-0.0538419298828 0.196599245071 -0.0353488624096
0.0 0.0 0.0
0.0 0.0 0.0
0.0 0.0 0.0
0.0 0.0 0.0
0.0 0.0 0.0
0.0 0.0 0.0
0.0 0.0 0.0
0.0 0.0 0.0
0.0 0.0 0.0
-0.72023755312 0.0 -0.821803748608
-0.0907342880964 0.246134325862 -0.0344913341105
0.0 0.0 0.0
0.0 0.0 0.0
0.0 0.0 0.0
0.0 0.0 0.0
0.0 0.0 0.0
0.0 0.0 0.0
0.0 0.0 0.0
0.0 0.0 0.0
0.0 0.0 0.0
-0.723118245602 0.0 -0.773764371872
-0.0932460203767 0.270990312099 -0.0410976968706
0.0 0.0 0.0
0.0 0.0 0.0
0.0 0.0 0.0
0.0 0.0 0.0
0.0 0.0 0.0
0.0 0.0 0.0
0.0 0.0 0.0
0.0 0.0 0.0
0.0 0.0 0.0
-0.678493320942 0.0 -0.681655406952
-0.0281264390796 0.251667112112 -0.0546126775444
0.0 0.0 0.0
0.0 0.0 0.0
0.0 0.0 0.0
0.0 0.0 0.0
0.0 0.0 0.0
0.0 0.0 0.0
0.0 0.0 0.0
0.0 0.0 0.0
0.0 0.0 0.0
-0.567100048065 0.0 -0.563181817532
0.112335331738 0.181956782937 -0.0688283368945
0.0 0.0 0.0
0.0 0.0 0.0
0.0 0.0 0.0
0.0 0.0 0.0
0.0 0.0 0.0
0.0 0.0 0.0
0.0 0.0 0.0
0.0 0.0 0.0
0.0 0.0 0.0
-0.391781300306 0.0 -0.435769736767
0.311200141907 0.071335285902 -0.0770574808121
0.0 0.0 0.0
0.0 0.0 0.0
0.0 0.0 0.0
0.0 0.0 0.0
0.0 0.0 0.0
0.0 0.0 0.0
0.0 0.0 0.0
0.0 0.0 0.0
0.0 0.0 0.0
-0.173821076751 0.0 -0.314420223236
0.533474802971 -0.0585458576679 -0.0743882805109
0.0 0.0 0.0
0.0 0.0 0.0
0.0 0.0 0.0
0.0 0.0 0.0
0.0 0.0 0.0
0.0 0.0 0.0
0.0 0.0 0.0
0.0 0.0 0.0
0.0 0.0 0.0
0.0532574020326 0.0 -0.20927760005
0.735705018044 -0.179809898138 -0.0590313710272
0.0 0.0 0.0
0.0 0.0 0.0
0.0 0.0 0.0
0.0 0.0 0.0
0.0 0.0 0.0
0.0 0.0 0.0
0.0 0.0 0.0
0.0 0.0 0.0
0.0 0.0 0.0
0.25147485733 0.0 -0.124260187149
0.876696944237 -0.265544503927 -0.0326842479408
0.0 0.0 0.0
0.0 0.0 0.0
0.0 0.0 0.0
0.0 0.0 0.0
0.0 0.0 0.0
0.0 0.0 0.0
0.0 0.0 0.0
0.0 0.0 0.0
0.0 0.0 0.0
0.386415868998 0.0 -0.0569874048233
0.927210688591 -0.296453684568 0.0
0.937326908112 -0.268043398857 0.0
0.941502988338 -0.223445206881 0.0
0.923099398613 -0.175477772951 0.0
0.875323474407 -0.129713132977 0.0
0.798829734325 -0.0901341363788 0.0
0.703047096729 -0.0584899224341 0.0
0.602841615677 -0.0350271575153 0.0
0.515174388885 -0.0188082829118 0.0
0.455419540405 -0.00797208677977 0.0
0.434233695269 0.0 0.0
-0.0141481431201 0.216074839234 -0.0517253540456
-0.0538790933788 0.198635518551 -0.0851006507874
-0.0796644389629 0.155107691884 -0.118531435728
-0.122512891889 0.0903799086809 -0.169959560037
-0.189530342817 0.0185474865139 -0.248738750815
-0.278528988361 -0.0450008735061 -0.353819698095
-0.380143195391 -0.0877852365375 -0.475055754185
-0.480907589197 -0.102532476187 -0.596543431282
-0.566247880459 -0.0883810073137 -0.700299322605
-0.623322725296 -0.0507444776595 -0.770087897778
-0.64338093996 0.0 -0.794684588909
-0.0465344190598 0.249934926629 -0.0628774911165
0.0 0.0 0.0
0.0 0.0 0.0
0.0 0.0 0.0
0.0 0.0 0.0
0.0 0.0 0.0
0.0 0.0 0.0
0.0 0.0 0.0
0.0 0.0 0.0
0.0 0.0 0.0
-0.682838618755 0.0 -0.82516002655
-0.0968024209142 0.27309858799 -0.0770201981068
0.0 0.0 0.0
0.0 0.0 0.0
0.0 0.0 0.0
0.0 0.0 0.0
0.0 0.0 0.0
0.0 0.0 0.0
0.0 0.0 0.0
0.0 0.0 0.0
0.0 0.0 0.0
-0.705579519272 0.0 -0.797023594379
-0.105590820312 0.273774892092 -0.102589279413
0.0 0.0 0.0
0.0 0.0 0.0
0.0 0.0 0.0
0.0 0.0 0.0
0.0 0.0 0.0
0.0 0.0 0.0
0.0 0.0 0.0
0.0 0.0 0.0
0.0 0.0 0.0
-0.67477118969 0.0 -0.729244053364
-0.0473770350218 0.236538648605 -0.136612743139
0.0 0.0 0.0
0.0 0.0 0.0
0.0 0.0 0.0
0.0 0.0 0.0
0.0 0.0 0.0
0.0 0.0 0.0
0.0 0.0 0.0
0.0 0.0 0.0
0.0 0.0 0.0
-0.575522303581 0.0 -0.636757850647
0.0822640955448 0.157653465867 -0.167716950178
0.0 0.0 0.0
0.0 0.0 0.0
0.0 0.0 0.0
0.0 0.0 0.0
0.0 0.0 0.0
0.0 0.0 0.0
0.0 0.0 0.0
0.0 0.0 0.0
0.0 0.0 0.0
-0.411973387003 0.0 -0.530662178993
0.266288042068 0.0459979660809 -0.183038324118
0.0 0.0 0.0
0.0 0.0 0.0
0.0 0.0 0.0
0.0 0.0 0.0
0.0 0.0 0.0
0.0 0.0 0.0
0.0 0.0 0.0
0.0 0.0 0.0
0.0 0.0 0.0
-0.205433800817 0.0 -0.419378340244
0.471855551004 -0.0791628733277 -0.173360601068
0.0 0.0 0.0
0.0 0.0 0.0
0.0 0.0 0.0
0.0 0.0 0.0
0.0 0.0 0.0
0.0 0.0 0.0
0.0 0.0 0.0
0.0 0.0 0.0
0.0 0.0 0.0
0.0112800132483 0.0 -0.308781087399
0.658724069595 -0.193401157856 -0.135829895735
0.0 0.0 0.0
0.0 0.0 0.0
0.0 0.0 0.0
0.0 0.0 0.0
0.0 0.0 0.0
0.0 0.0 0.0
0.0 0.0 0.0
0.0 0.0 0.0
0.0 0.0 0.0
0.201138049364 0.0 -0.202025160193
0.788925230503 -0.273236960173 -0.0746628269553
0.0 0.0 0.0
0.0 0.0 0.0
0.0 0.0 0.0
0.0 0.0 0.0
0.0 0.0 0.0
0.0 0.0 0.0
0.0 0.0 0.0
0.0 0.0 0.0
0.0 0.0 0.0
0.330634266138 0.0 -0.0996288731694
0.835558414459 -0.301876097918 0.0
0.855646431446 -0.269512474537 0.0
0.868704736233 -0.216538354754 0.0
0.85547286272 -0.156088232994 0.0
0.810255289078 -0.097458973527 0.0
0.735637068748 -0.0473560281098 0.0
0.64145475626 -0.0106208873913 0.0
0.542741894722 0.0105897244066 0.0
0.456337362528 0.0169243719429 0.0
0.397441536188 0.0116400420666 0.0
0.376560628414 0.0 0.0
0.0262747276574 0.269193679094 -0.0392038375139
0.011888419278 0.249666616321 -0.0532464534044
0.0019081303617 0.202292263508 -0.0712985619903
-0.0302748270333 0.136696264148 -0.114463105798
-0.0898045599461 0.0656120032072 -0.188956394792
-0.172872945666 0.00229698396288 -0.292593091726
-0.269565880299 -0.0427297763526 -0.414179801941
-0.366326451302 -0.063494682312 -0.536963164806
-0.448669433594 -0.0594487562776 -0.642228782177
-0.503881692886 -0.0353188440204 -0.713169574738
-0.52330738306 0.0 -0.738192796707
-0.0421382933855 0.282249897718 -0.0566535629332
0.0 0.0 0.0
0.0 0.0 0.0
0.0 0.0 0.0
0.0 0.0 0.0
0.0 0.0 0.0
0.0 0.0 0.0
0.0 0.0 0.0
0.0 0.0 0.0
0.0 0.0 0.0
-0.605027496815 0.0 -0.780691981316
-0.110044032335 0.282088190317 -0.0782222896814
0.0 0.0 0.0
0.0 0.0 0.0
0.0 0.0 0.0
0.0 0.0 0.0
0.0 0.0 0.0
0.0 0.0 0.0
0.0 0.0 0.0
0.0 0.0 0.0
0.0 0.0 0.0
-0.652410507202 0.0 -0.766237974167
-0.129633054137 0.263725072145 -0.115563847125
0.0 0.0 0.0
0.0 0.0 0.0
0.0 0.0 0.0
0.0 0.0 0.0
0.0 0.0 0.0
0.0 0.0 0.0
0.0 0.0 0.0
0.0 0.0 0.0
0.0 0.0 0.0
-0.639493942261 0.0 -0.716078519821
-0.0825710371137 0.211679324508 -0.162153691053
0.0 0.0 0.0
0.0 0.0 0.0
0.0 0.0 0.0
0.0 0.0 0.0
0.0 0.0 0.0
0.0 0.0 0.0
0.0 0.0 0.0
0.0 0.0 0.0
0.0 0.0 0.0
-0.557111263275 0.0 -0.642510175705
0.0307837873697 0.123975396156 -0.203588709235
0.0 0.0 0.0
0.0 0.0 0.0
0.0 0.0 0.0
0.0 0.0 0.0
0.0 0.0 0.0
0.0 0.0 0.0
0.0 0.0 0.0
0.0 0.0 0.0
0.0 0.0 0.0
-0.412319093943 0.0 -0.553218066692
0.193204075098 0.00931697152555 -0.224344059825
0.0 0.0 0.0
0.0 0.0 0.0
0.0 0.0 0.0
0.0 0.0 0.0
0.0 0.0 0.0
0.0 0.0 0.0
0.0 0.0 0.0
0.0 0.0 0.0
0.0 0.0 0.0
-0.226208418608 0.0 -0.453056663275
0.374741882086 -0.114466197789 -0.213409766555
0.0 0.0 0.0
0.0 0.0 0.0
0.0 0.0 0.0
0.0 0.0 0.0
0.0 0.0 0.0
0.0 0.0 0.0
0.0 0.0 0.0
0.0 0.0 0.0
0.0 0.0 0.0
-0.0296387374401 0.0 -0.345391243696
0.539636433125 -0.225217401981 -0.167545795441
0.0 0.0 0.0
0.0 0.0 0.0
0.0 0.0 0.0
0.0 0.0 0.0
0.0 0.0 0.0
0.0 0.0 0.0
0.0 0.0 0.0
0.0 0.0 0.0
0.0 0.0 0.0
0.143078833818 0.0 -0.232740819454
0.654440581799 -0.301794618368 -0.0921781659126
0.0 0.0 0.0
0.0 0.0 0.0
0.0 0.0 0.0
0.0 0.0 0.0
0.0 0.0 0.0
0.0 0.0 0.0
0.0 0.0 0.0
0.0 0.0 0.0
0.0 0.0 0.0
0.261047959328 0.0 -0.117075964808
0.695542573929 -0.329135805368 0.0
0.733929514885 -0.289777398109 0.0
0.755759954453 -0.230039790273 0.0
0.748622119427 -0.160270646214 0.0
0.708396792412 -0.0914362072945 0.0
0.639102816582 -0.032692167908 0.0
0.550980269909 0.00938858836889 0.0
0.458502799273 0.0314926989377 0.0
0.377583086491 0.0340956225991 0.0
0.322451084852 0.0212888363749 0.0
0.302910327911 0.0 0.0
0.0738292708993 0.281316637993 0.0361090600491
0.0920702069998 0.262514591217 0.0381204783916
0.0971639081836 0.215831249952 0.0331042632461
0.074808947742 0.152614608407 -0.00164194265381
0.0235797483474 0.0848205536604 -0.0712594240904
-0.0512399896979 0.0241461005062 -0.172672569752
-0.139551952481 -0.0201884508133 -0.293899357319
-0.22839024663 -0.0429703518748 -0.417434513569
-0.304166078568 -0.0437799878418 -0.523848593235
-0.35503038764 -0.0268322099 -0.595743000507
-0.372934490442 0.0 -0.621130168438
-0.0426539368927 0.277441561222 0.0156572274864
0.0 0.0 0.0
0.0 0.0 0.0
0.0 0.0 0.0
0.0 0.0 0.0
0.0 0.0 0.0
0.0 0.0 0.0
0.0 0.0 0.0
0.0 0.0 0.0
0.0 0.0 0.0
-0.502353966236 0.0 -0.66939163208
-0.129988402128 0.260287135839 -0.0132207088172
0.0 0.0 0.0
0.0 0.0 0.0
0.0 0.0 0.0
0.0 0.0 0.0
0.0 0.0 0.0
0.0 0.0 0.0
0.0 0.0 0.0
0.0 0.0 0.0
0.0 0.0 0.0
-0.575982093811 0.0 -0.666640996933
-0.161378741264 0.22746270895 -0.0621444582939
0.0 0.0 0.0
0.0 0.0 0.0
0.0 0.0 0.0
0.0 0.0 0.0
0.0 0.0 0.0
0.0 0.0 0.0
0.0 0.0 0.0
0.0 0.0 0.0
0.0 0.0 0.0
-0.582307696342 0.0 -0.632969260216
-0.127458244562 0.164183005691 -0.122298009694
0.0 0.0 0.0
0.0 0.0 0.0
0.0 0.0 0.0
0.0 0.0 0.0
0.0 0.0 0.0
0.0 0.0 0.0
0.0 0.0 0.0
0.0 0.0 0.0
0.0 0.0 0.0
-0.519416868687 0.0 -0.578569769859
-0.0327820591629 0.0691886991262 -0.17674779892
0.0 0.0 0.0
0.0 0.0 0.0
0.0 0.0 0.0
0.0 0.0 0.0
0.0 0.0 0.0
0.0 0.0 0.0
0.0 0.0 0.0
0.0 0.0 0.0
0.0 0.0 0.0
-0.397200703621 0.0 -0.508391022682
0.105368420482 -0.0487451180816 -0.208356201649
0.0 0.0 0.0
0.0 0.0 0.0
0.0 0.0 0.0
0.0 0.0 0.0
0.0 0.0 0.0
0.0 0.0 0.0
0.0 0.0 0.0
0.0 0.0 0.0
0.0 0.0 0.0
-0.236392185092 0.0 -0.424980998039
0.260209828615 -0.17262160778 -0.20530629158
0.0 0.0 0.0
0.0 0.0 0.0
0.0 0.0 0.0
0.0 0.0 0.0
0.0 0.0 0.0
0.0 0.0 0.0
0.0 0.0 0.0
0.0 0.0 0.0
0.0 0.0 0.0
-0.0652182325721 0.0 -0.330125421286
0.400819122791 -0.281740427017 -0.164265856147
0.0 0.0 0.0
0.0 0.0 0.0
0.0 0.0 0.0
0.0 0.0 0.0
0.0 0.0 0.0
0.0 0.0 0.0
0.0 0.0 0.0
0.0 0.0 0.0
0.0 0.0 0.0
0.0856409594417 0.0 -0.225829139352
0.498649865389 -0.356534808874 -0.0912333205342
0.0 0.0 0.0
0.0 0.0 0.0
0.0 0.0 0.0
0.0 0.0 0.0
0.0 0.0 0.0
0.0 0.0 0.0
0.0 0.0 0.0
0.0 0.0 0.0
0.0 0.0 0.0
0.188811153173 0.0 -0.11471080035
0.533660471439 -0.383134543896 0.0
0.592181622982 -0.338655948639 0.0
0.623817682266 -0.27112609148 0.0
0.623037040234 -0.191872864962 0.0
0.589284956455 -0.112731963396 0.0
0.527712285519 -0.0444091334939 0.0
0.448556929827 0.00518789514899 0.0
0.365347951651 0.032023947686 0.0
0.292560189962 0.0364660024643 0.0
0.242999151349 0.0231358483434 0.0
0.225439369678 0.0 0.0
0.114564172924 0.244202196598 0.182099536061
0.164284542203 0.229644566774 0.194249078631
0.182275518775 0.189985468984 0.196830704808
0.168354958296 0.134895563126 0.168127194047
0.125570371747 0.0750768184662 0.102548167109
0.0605351738632 0.0211504455656 0.00336471269839
-0.0169648788869 -0.018437853083 -0.117090918124
-0.0951121300459 -0.0388279408216 -0.240828171372
-0.161801725626 -0.0395107977092 -0.347888827324
-0.206567496061 -0.0242112260312 -0.420394450426
-0.222324192524 0.0 -0.446024984121
-0.0453171208501 0.229748874903 0.161033168435
0.0 0.0 0.0
0.0 0.0 0.0
0.0 0.0 0.0
0.0 0.0 0.0
0.0 0.0 0.0
0.0 0.0 0.0
0.0 0.0 0.0
0.0 0.0 0.0
0.0 0.0 0.0
-0.390367031097 0.0 -0.494007647038
-0.14856633544 0.20405203104 0.121741764247
0.0 0.0 0.0
0.0 0.0 0.0
0.0 0.0 0.0
0.0 0.0 0.0
0.0 0.0 0.0
0.0 0.0 0.0
0.0 0.0 0.0
0.0 0.0 0.0
0.0 0.0 0.0
-0.485518366098 0.0 -0.502501249313
-0.189596444368 0.162796318531 0.0567167848349
0.0 0.0 0.0
0.0 0.0 0.0
0.0 0.0 0.0
0.0 0.0 0.0
0.0 0.0 0.0
0.0 0.0 0.0
0.0 0.0 0.0
0.0 0.0 0.0
0.0 0.0 0.0
-0.508866667747 0.0 -0.487128347158
-0.168201655149 0.0923791825771 -0.0221384298056
0.0 0.0 0.0
0.0 0.0 0.0
0.0 0.0 0.0
0.0 0.0 0.0
0.0 0.0 0.0
0.0 0.0 0.0
0.0 0.0 0.0
0.0 0.0 0.0
0.0 0.0 0.0
-0.465297818184 0.0 -0.454967170954
-0.0924432650208 -0.00775235891342 -0.0957618802786
0.0 0.0 0.0
0.0 0.0 0.0
0.0 0.0 0.0
0.0 0.0 0.0
0.0 0.0 0.0
0.0 0.0 0.0
0.0 0.0 0.0
0.0 0.0 0.0
0.0 0.0 0.0
-0.366998493671 0.0 -0.408521145582
0.0209778752178 -0.128517478704 -0.145788446069
0.0 0.0 0.0
0.0 0.0 0.0
0.0 0.0 0.0
0.0 0.0 0.0
0.0 0.0 0.0
0.0 0.0 0.0
0.0 0.0 0.0
0.0 0.0 0.0
0.0 0.0 0.0
-0.233706176281 0.0 -0.348463833332
0.148699015379 -0.253220021725 -0.159919172525
0.0 0.0 0.0
0.0 0.0 0.0
0.0 0.0 0.0
0.0 0.0 0.0
0.0 0.0 0.0
0.0 0.0 0.0
0.0 0.0 0.0
0.0 0.0 0.0
0.0 0.0 0.0
-0.0904791802168 0.0 -0.275412470102
0.264719992876 -0.361922293901 -0.1348195225
0.0 0.0 0.0
0.0 0.0 0.0
0.0 0.0 0.0
0.0 0.0 0.0
0.0 0.0 0.0
0.0 0.0 0.0
0.0 0.0 0.0
0.0 0.0 0.0
0.0 0.0 0.0
0.0361874885857 0.0 -0.190906777978
0.345402508974 -0.43597650528 -0.0767685547471
0.0 0.0 0.0
0.0 0.0 0.0
0.0 0.0 0.0
0.0 0.0 0.0
0.0 0.0 0.0
0.0 0.0 0.0
0.0 0.0 0.0
0.0 0.0 0.0
0.0 0.0 0.0
0.122928857803 0.0 -0.0977758914232
0.374265342951 -0.462238192558 0.0
0.448697626591 -0.414375722408 0.0
0.488403141499 -0.338732749224 0.0
0.493662834167 -0.248720690608 0.0
0.467013806105 -0.157850667834 0.0
0.414689153433 -0.0780947357416 0.0
0.346485465765 -0.0183514580131 0.0
0.274590671062 0.0167914777994 0.0
0.211699381471 0.0276334062219 0.0
0.168898224831 0.019152039662 0.0
0.153738960624 0.0 0.0
0.13713683188 0.164949700236 0.382687151432
0.208407506347 0.157372415066 0.398671537638
0.234871387482 0.130323648453 0.403014928102
0.227585524321 0.0887511223555 0.3771520257
0.193246170878 0.0414668992162 0.313981384039
0.13922342658 -0.0017995579401 0.216452181339
0.0744650885463 -0.0329864658415 0.096780821681
0.00914155226201 -0.0472709387541 -0.0268514696509
-0.0465655326843 -0.0438714250922 -0.134183436632
-0.0839340537786 -0.0259918067604 -0.207012683153
-0.0970822423697 0.0 -0.232780396938
-0.0464530363679 0.146486580372 0.362353861332
0.0 0.0 0.0
0.0 0.0 0.0
0.0 0.0 0.0
0.0 0.0 0.0
0.0 0.0 0.0
0.0 0.0 0.0
0.0 0.0 0.0
0.0 0.0 0.0
0.0 0.0 0.0