# vtk DataFile Version 3.0
VTK output for triangular mesh with displacement fields
ASCII
DATASET UNSTRUCTURED_GRID
POINTS 1331 float
50.0 50.0 50.0
50.0 45.0 50.0
50.0 40.0 50.0
50.0 35.0 50.0
50.0 30.0 50.0
50.0 25.0 50.0
50.0 20.0 50.0
50.0 15.0 50.0
50.0 10.0 50.0
50.0 5.0 50.0
50.0 0.0 50.0
50.0 50.0 45.0
50.0 45.0 45.0
50.0 40.0 45.0
50.0 35.0 45.0
50.0 30.0 45.0
50.0 25.0 45.0
50.0 20.0 45.0
50.0 15.0 45.0
50.0 10.0 45.0
50.0 5.0 45.0
50.0 0.0 45.0
50.0 50.0 40.0
50.0 45.0 40.0
50.0 40.0 40.0
50.0 35.0 40.0
50.0 30.0 40.0
50.0 25.0 40.0
50.0 20.0 40.0
50.0 15.0 40.0
50.0 10.0 40.0
50.0 5.0 40.0
50.0 0.0 40.0
50.0 50.0 35.0
50.0 45.0 35.0
50.0 40.0 35.0
50.0 35.0 35.0
50.0 30.0 35.0
50.0 25.0 35.0
50.0 20.0 35.0
50.0 15.0 35.0
50.0 10.0 35.0
50.0 5.0 35.0
50.0 0.0 35.0
50.0 50.0 30.0
50.0 45.0 30.0
50.0 40.0 30.0
50.0 35.0 30.0
50.0 30.0 30.0
50.0 25.0 30.0
50.0 20.0 30.0
50.0 15.0 30.0
50.0 10.0 30.0
50.0 5.0 30.0
50.0 0.0 30.0
50.0 50.0 25.0
50.0 45.0 25.0
50.0 40.0 25.0
50.0 35.0 25.0
50.0 30.0 25.0
50.0 25.0 25.0
50.0 20.0 25.0
50.0 15.0 25.0
50.0 10.0 25.0
50.0 5.0 25.0
50.0 0.0 25.0
50.0 50.0 20.0
50.0 45.0 20.0
50.0 40.0 20.0
50.0 35.0 20.0
50.0 30.0 20.0
50.0 25.0 20.0
50.0 20.0 20.0
50.0 15.0 20.0
50.0 10.0 20.0
50.0 5.0 20.0
50.0 0.0 20.0
50.0 50.0 15.0
50.0 45.0 15.0
50.0 40.0 15.0
50.0 35.0 15.0
50.0 30.0 15.0
50.0 25.0 15.0
50.0 20.0 15.0
50.0 15.0 15.0
50.0 10.0 15.0
50.0 5.0 15.0
50.0 0.0 15.0
50.0 50.0 10.0
50.0 45.0 10.0
50.0 40.0 10.0
50.0 35.0 10.0
50.0 30.0 10.0
50.0 25.0 10.0
50.0 20.0 10.0
50.0 15.0 10.0
50.0 10.0 10.0
50.0 5.0 10.0
50.0 0.0 10.0
50.0 50.0 5.0
50.0 45.0 5.0
50.0 40.0 5.0
50.0 35.0 5.0
50.0 30.0 5.0
50.0 25.0 5.0
50.0 20.0 5.0
50.0 15.0 5.0
50.0 10.0 5.0
50.0 5.0 5.0
50.0 0.0 5.0
50.0 50.0 0.0
50.0 45.0 0.0
50.0 40.0 0.0
50.0 35.0 0.0
50.0 30.0 0.0
50.0 25.0 0.0
50.0 20.0 0.0
50.0 15.0 0.0
50.0 10.0 0.0
50.0 5.0 0.0
50.0 0.0 0.0
45.0 50.0 50.0
45.0 45.0 50.0
45.0 40.0 50.0
45.0 35.0 50.0
45.0 30.0 50.0
45.0 25.0 50.0
45.0 20.0 50.0
45.0 15.0 50.0
45.0 10.0 50.0
45.0 5.0 50.0
45.0 0.0 50.0
45.0 50.0 45.0
45.0 45.0 45.0
45.0 40.0 45.0
45.0 35.0 45.0
45.0 30.0 45.0
45.0 25.0 45.0
45.0 20.0 45.0
45.0 15.0 45.0
45.0 10.0 45.0
45.0 5.0 45.0
45.0 0.0 45.0
45.0 50.0 40.0
45.0 45.0 40.0
45.0 40.0 40.0
45.0 35.0 40.0
45.0 30.0 40.0
45.0 25.0 40.0
45.0 20.0 40.0
45.0 15.0 40.0
45.0 10.0 40.0
45.0 5.0 40.0
45.0 0.0 40.0
45.0 50.0 35.0
45.0 45.0 35.0
45.0 40.0 35.0
45.0 35.0 35.0
45.0 30.0 35.0
45.0 25.0 35.0
45.0 20.0 35.0
45.0 15.0 35.0
45.0 10.0 35.0
45.0 5.0 35.0
45.0 0.0 35.0
45.0 50.0 30.0
45.0 45.0 30.0
45.0 40.0 30.0
45.0 35.0 30.0
45.0 30.0 30.0
45.0 25.0 30.0
45.0 20.0 30.0
45.0 15.0 30.0
45.0 10.0 30.0
45.0 5.0 30.0
45.0 0.0 30.0
45.0 50.0 25.0
45.0 45.0 25.0
45.0 40.0 25.0
45.0 35.0 25.0
45.0 30.0 25.0
45.0 25.0 25.0
45.0 20.0 25.0
45.0 15.0 25.0
45.0 10.0 25.0
45.0 5.0 25.0
45.0 0.0 25.0
45.0 50.0 20.0
45.0 45.0 20.0
45.0 40.0 20.0
45.0 35.0 20.0
45.0 30.0 20.0
45.0 25.0 20.0
45.0 20.0 20.0
45.0 15.0 20.0
45.0 10.0 20.0
45.0 5.0 20.0
45.0 0.0 20.0
45.0 50.0 15.0
45.0 45.0 15.0
45.0 40.0 15.0
45.0 35.0 15.0
45.0 30.0 15.0
45.0 25.0 15.0
45.0 20.0 15.0
45.0 15.0 15.0
45.0 10.0 15.0
45.0 5.0 15.0
45.0 0.0 15.0
45.0 50.0 10.0
45.0 45.0 10.0
45.0 40.0 10.0
45.0 35.0 10.0
45.0 30.0 10.0
45.0 25.0 10.0
45.0 20.0 10.0
45.0 15.0 10.0
45.0 10.0 10.0
45.0 5.0 10.0
45.0 0.0 10.0
45.0 50.0 5.0
45.0 45.0 5.0
45.0 40.0 5.0
45.0 35.0 5.0
45.0 30.0 5.0
45.0 25.0 5.0
45.0 20.0 5.0
45.0 15.0 5.0
45.0 10.0 5.0
45.0 5.0 5.0
45.0 0.0 5.0
45.0 50.0 0.0
45.0 45.0 0.0
45.0 40.0 0.0
45.0 35.0 0.0
45.0 30.0 0.0
45.0 25.0 0.0
45.0 20.0 0.0
45.0 15.0 0.0
45.0 10.0 0.0
45.0 5.0 0.0
45.0 0.0 0.0
40.0 50.0 50.0
40.0 45.0 50.0
40.0 40.0 50.0
40.0 35.0 50.0
40.0 30.0 50.0
40.0 25.0 50.0
40.0 20.0 50.0
40.0 15.0 50.0
40.0 10.0 50.0
40.0 5.0 50.0
40.0 0.0 50.0
40.0 50.0 45.0
40.0 45.0 45.0
40.0 40.0 45.0
40.0 35.0 45.0
40.0 30.0 45.0
40.0 25.0 45.0
40.0 20.0 45.0
40.0 15.0 45.0
40.0 10.0 45.0
40.0 5.0 45.0
40.0 0.0 45.0
40.0 50.0 40.0
40.0 45.0 40.0
40.0 40.0 40.0
40.0 35.0 40.0
40.0 30.0 40.0
40.0 25.0 40.0
40.0 20.0 40.0
40.0 15.0 40.0
40.0 10.0 40.0
40.0 5.0 40.0
40.0 0.0 40.0
40.0 50.0 35.0
40.0 45.0 35.0
40.0 40.0 35.0
40.0 35.0 35.0
40.0 30.0 35.0
40.0 25.0 35.0
40.0 20.0 35.0
40.0 15.0 35.0
40.0 10.0 35.0
40.0 5.0 35.0
40.0 0.0 35.0
40.0 50.0 30.0
40.0 45.0 30.0
40.0 40.0 30.0
40.0 35.0 30.0
40.0 30.0 30.0
40.0 25.0 30.0
40.0 20.0 30.0
40.0 15.0 30.0
40.0 10.0 30.0
40.0 5.0 30.0
40.0 0.0 30.0
40.0 50.0 25.0
40.0 45.0 25.0
40.0 40.0 25.0
40.0 35.0 25.0
40.0 30.0 25.0
40.0 25.0 25.0
40.0 20.0 25.0
40.0 15.0 25.0
40.0 10.0 25.0
40.0 5.0 25.0
40.0 0.0 25.0
40.0 50.0 20.0
40.0 45.0 20.0
40.0 40.0 20.0
40.0 35.0 20.0
40.0 30.0 20.0
40.0 25.0 20.0
40.0 20.0 20.0
40.0 15.0 20.0
40.0 10.0 20.0
40.0 5.0 20.0
40.0 0.0 20.0
40.0 50.0 15.0
40.0 45.0 15.0
40.0 40.0 15.0
40.0 35.0 15.0
40.0 30.0 15.0
40.0 25.0 15.0
40.0 20.0 15.0
40.0 15.0 15.0
40.0 10.0 15.0
40.0 5.0 15.0
40.0 0.0 15.0
40.0 50.0 10.0
40.0 45.0 10.0
40.0 40.0 10.0
40.0 35.0 10.0
40.0 30.0 10.0
40.0 25.0 10.0
40.0 20.0 10.0
40.0 15.0 10.0
40.0 10.0 10.0
40.0 5.0 10.0
40.0 0.0 10.0
40.0 50.0 5.0
40.0 45.0 5.0
40.0 40.0 5.0
40.0 35.0 5.0
40.0 30.0 5.0
40.0 25.0 5.0
40.0 20.0 5.0
40.0 15.0 5.0
40.0 10.0 5.0
40.0 5.0 5.0
40.0 0.0 5.0
40.0 50.0 0.0
40.0 45.0 0.0
40.0 40.0 0.0
40.0 35.0 0.0
40.0 30.0 0.0
40.0 25.0 0.0
40.0 20.0 0.0
40.0 15.0 0.0
40.0 10.0 0.0
40.0 5.0 0.0
40.0 0.0 0.0
35.0 50.0 50.0
35.0 45.0 50.0
35.0 40.0 50.0
35.0 35.0 50.0
35.0 30.0 50.0
35.0 25.0 50.0
35.0 20.0 50.0
35.0 15.0 50.0
35.0 10.0 50.0
35.0 5.0 50.0
35.0 0.0 50.0
35.0 50.0 45.0
35.0 45.0 45.0
35.0 40.0 45.0
35.0 35.0 45.0
35.0 30.0 45.0
35.0 25.0 45.0
35.0 20.0 45.0
35.0 15.0 45.0
35.0 10.0 45.0
35.0 5.0 45.0
35.0 0.0 45.0
35.0 50.0 40.0
35.0 45.0 40.0
35.0 40.0 40.0
35.0 35.0 40.0
35.0 30.0 40.0
35.0 25.0 40.0
35.0 20.0 40.0
35.0 15.0 40.0
35.0 10.0 40.0
35.0 5.0 40.0
35.0 0.0 40.0
35.0 50.0 35.0
35.0 45.0 35.0
35.0 40.0 35.0
35.0 35.0 35.0
35.0 30.0 35.0
35.0 25.0 35.0
35.0 20.0 35.0
35.0 15.0 35.0
35.0 10.0 35.0
35.0 5.0 35.0
35.0 0.0 35.0
35.0 50.0 30.0
35.0 45.0 30.0
35.0 40.0 30.0
35.0 35.0 30.0
35.0 30.0 30.0
35.0 25.0 30.0
35.0 20.0 30.0
35.0 15.0 30.0
35.0 10.0 30.0
35.0 5.0 30.0
35.0 0.0 30.0
35.0 50.0 25.0
35.0 45.0 25.0
35.0 40.0 25.0
35.0 35.0 25.0
35.0 30.0 25.0
35.0 25.0 25.0
35.0 20.0 25.0
35.0 15.0 25.0
35.0 10.0 25.0
35.0 5.0 25.0
35.0 0.0 25.0
35.0 50.0 20.0
35.0 45.0 20.0
35.0 40.0 20.0
35.0 35.0 20.0
35.0 30.0 20.0
35.0 25.0 20.0
35.0 20.0 20.0
35.0 15.0 20.0
35.0 10.0 20.0
35.0 5.0 20.0
35.0 0.0 20.0
35.0 50.0 15.0
35.0 45.0 15.0
35.0 40.0 15.0
35.0 35.0 15.0
35.0 30.0 15.0
35.0 25.0 15.0
35.0 20.0 15.0
35.0 15.0 15.0
35.0 10.0 15.0
35.0 5.0 15.0
35.0 0.0 15.0
35.0 50.0 10.0
35.0 45.0 10.0
35.0 40.0 10.0
35.0 35.0 10.0
35.0 30.0 10.0
35.0 25.0 10.0
35.0 20.0 10.0
35.0 15.0 10.0
35.0 10.0 10.0
35.0 5.0 10.0
35.0 0.0 10.0
35.0 50.0 5.0
35.0 45.0 5.0
35.0 40.0 5.0
35.0 35.0 5.0
35.0 30.0 5.0
35.0 25.0 5.0
35.0 20.0 5.0
35.0 15.0 5.0
35.0 10.0 5.0
35.0 5.0 5.0
35.0 0.0 5.0
35.0 50.0 0.0
35.0 45.0 0.0
35.0 40.0 0.0
35.0 35.0 0.0
35.0 30.0 0.0
35.0 25.0 0.0
35.0 20.0 0.0
35.0 15.0 0.0
35.0 10.0 0.0
35.0 5.0 0.0
35.0 0.0 0.0
30.0 50.0 50.0
30.0 45.0 50.0
30.0 40.0 50.0
30.0 35.0 50.0
30.0 30.0 50.0
30.0 25.0 50.0
30.0 20.0 50.0
30.0 15.0 50.0
30.0 10.0 50.0
30.0 5.0 50.0
30.0 0.0 50.0
30.0 50.0 45.0
30.0 45.0 45.0
30.0 40.0 45.0
30.0 35.0 45.0
30.0 30.0 45.0
30.0 25.0 45.0
30.0 20.0 45.0
30.0 15.0 45.0
30.0 10.0 45.0
30.0 5.0 45.0
30.0 0.0 45.0
30.0 50.0 40.0
30.0 45.0 40.0
30.0 40.0 40.0
30.0 35.0 40.0
30.0 30.0 40.0
30.0 25.0 40.0
30.0 20.0 40.0
30.0 15.0 40.0
30.0 10.0 40.0
30.0 5.0 40.0
30.0 0.0 40.0
30.0 50.0 35.0
30.0 45.0 35.0
30.0 40.0 35.0
30.0 35.0 35.0
30.0 30.0 35.0
30.0 25.0 35.0
30.0 20.0 35.0
30.0 15.0 35.0
30.0 10.0 35.0
30.0 5.0 35.0
30.0 0.0 35.0
30.0 50.0 30.0
30.0 45.0 30.0
30.0 40.0 30.0
30.0 35.0 30.0
30.0 30.0 30.0
30.0 25.0 30.0
30.0 20.0 30.0
30.0 15.0 30.0
30.0 10.0 30.0
30.0 5.0 30.0
30.0 0.0 30.0
30.0 50.0 25.0
30.0 45.0 25.0
30.0 40.0 25.0
30.0 35.0 25.0
30.0 30.0 25.0
30.0 25.0 25.0
30.0 20.0 25.0
30.0 15.0 25.0
30.0 10.0 25.0
30.0 5.0 25.0
30.0 0.0 25.0
30.0 50.0 20.0
30.0 45.0 20.0
30.0 40.0 20.0
30.0 35.0 20.0
30.0 30.0 20.0
30.0 25.0 20.0
30.0 20.0 20.0
30.0 15.0 20.0
30.0 10.0 20.0
30.0 5.0 20.0
30.0 0.0 20.0
30.0 50.0 15.0
30.0 45.0 15.0
30.0 40.0 15.0
30.0 35.0 15.0
30.0 30.0 15.0
30.0 25.0 15.0
30.0 20.0 15.0
30.0 15.0 15.0
30.0 10.0 15.0
30.0 5.0 15.0
30.0 0.0 15.0
30.0 50.0 10.0
30.0 45.0 10.0
30.0 40.0 10.0
30.0 35.0 10.0
30.0 30.0 10.0
30.0 25.0 10.0
30.0 20.0 10.0
30.0 15.0 10.0
30.0 10.0 10.0
30.0 5.0 10.0
30.0 0.0 10.0
30.0 50.0 5.0
30.0 45.0 5.0
30.0 40.0 5.0
30.0 35.0 5.0
30.0 30.0 5.0
30.0 25.0 5.0
30.0 20.0 5.0
30.0 15.0 5.0
30.0 10.0 5.0
30.0 5.0 5.0
30.0 0.0 5.0
30.0 50.0 0.0
30.0 45.0 0.0
30.0 40.0 0.0
30.0 35.0 0.0
30.0 30.0 0.0
30.0 25.0 0.0
30.0 20.0 0.0
30.0 15.0 0.0
30.0 10.0 0.0
30.0 5.0 0.0
30.0 0.0 0.0
25.0 50.0 50.0
25.0 45.0 50.0
25.0 40.0 50.0
25.0 35.0 50.0
25.0 30.0 50.0
25.0 25.0 50.0
25.0 20.0 50.0
25.0 15.0 50.0
25.0 10.0 50.0
25.0 5.0 50.0
25.0 0.0 50.0
25.0 50.0 45.0
25.0 45.0 45.0
25.0 40.0 45.0
25.0 35.0 45.0
25.0 30.0 45.0
25.0 25.0 45.0
25.0 20.0 45.0
25.0 15.0 45.0
25.0 10.0 45.0
25.0 5.0 45.0
25.0 0.0 45.0
25.0 50.0 40.0
25.0 45.0 40.0
25.0 40.0 40.0
[...]
POINT_DATA 1331
VECTORS displacement float
0.0149999996647 -0.0500000007451 0.0149999996647
0.0149999996647 -0.0450000017881 0.0149999996647
0.0149999996647 -0.0399999991059 0.0149999996647
0.0149999996647 -0.035000000149 0.0149999996647
0.0149999996647 -0.0299999993294 0.0149999996647
0.0149999996647 -0.0250000003725 0.0149999996647
0.0149999996647 -0.019999999553 0.0149999996647
0.0149999996647 -0.0149999996647 0.0149999996647
0.0149999996647 -0.00999999977648 0.0149999996647
0.0149999996647 -0.00499999988824 0.0149999996647
0.0149999996647 -6.25000029188e-36 0.0149999996647
0.0149999996647 -0.0500000007451 0.0135000003502
0.0149999996647 -0.0450000017881 0.0135000003502
0.0149999996647 -0.0399999991059 0.0135000003502
0.0149999996647 -0.035000000149 0.0135000003502
0.0149999996647 -0.0299999993294 0.0135000003502
0.0149999996647 -0.0250000003725 0.0135000003502
0.0149999996647 -0.019999999553 0.0135000003502
0.0149999996647 -0.0149999996647 0.0135000003502
0.0149999996647 -0.00999999977648 0.0135000003502
0.0149999996647 -0.00499999988824 0.0135000003502
0.0149999996647 -1.25000005838e-35 0.0135000003502
0.0149999996647 -0.0500000007451 0.0120000001043
0.0149999996647 -0.0450000017881 0.0120000001043
0.0149999996647 -0.0399999991059 0.0120000001043
0.0149999996647 -0.035000000149 0.0120000001043
0.0149999996647 -0.0299999993294 0.0120000001043
0.0149999996647 -0.0250000003725 0.0120000001043
0.0149999996647 -0.019999999553 0.0120000001043
0.0149999996647 -0.0149999996647 0.0120000001043
0.0149999996647 -0.00999999977648 0.0120000001043
0.0149999996647 -0.00499999988824 0.0120000001043
0.0149999996647 -1.25000005838e-35 0.0120000001043
0.0149999996647 -0.0500000007451 0.0104999998584
0.0149999996647 -0.0450000017881 0.0104999998584
0.0149999996647 -0.0399999991059 0.0104999998584
0.0149999996647 -0.035000000149 0.0104999998584
0.0149999996647 -0.0299999993294 0.0104999998584
0.0149999996647 -0.0250000003725 0.0104999998584
0.0149999996647 -0.019999999553 0.0104999998584
0.0149999996647 -0.0149999996647 0.0104999998584
0.0149999996647 -0.00999999977648 0.0104999998584
0.0149999996647 -0.00499999988824 0.0104999998584
0.0149999996647 -1.25000005838e-35 0.0104999998584
0.0149999996647 -0.0500000007451 0.00899999961257
0.0149999996647 -0.0450000017881 0.00899999961257
0.0149999996647 -0.0399999991059 0.00899999961257
0.0149999996647 -0.035000000149 0.00899999961257
0.0149999996647 -0.0299999993294 0.00899999961257
0.0149999996647 -0.0250000003725 0.00899999961257
0.0149999996647 -0.019999999553 0.00899999961257
0.0149999996647 -0.0149999996647 0.00899999961257
0.0149999996647 -0.00999999977648 0.00899999961257
0.0149999996647 -0.00499999988824 0.00899999961257
0.0149999996647 -1.25000005838e-35 0.00899999961257
0.0149999996647 -0.0500000007451 0.00749999983236
0.0149999996647 -0.0450000017881 0.00749999983236
0.0149999996647 -0.0399999991059 0.00749999983236
0.0149999996647 -0.035000000149 0.00749999983236
0.0149999996647 -0.0299999993294 0.00749999983236
0.0149999996647 -0.0250000003725 0.00749999983236
0.0149999996647 -0.019999999553 0.00749999983236
0.0149999996647 -0.0149999996647 0.00749999983236
0.0149999996647 -0.00999999977648 0.00749999983236
0.0149999996647 -0.00499999988824 0.00749999983236
0.0149999996647 -1.25000005838e-35 0.00749999983236
0.0149999996647 -0.0500000007451 0.00600000005215
0.0149999996647 -0.0450000017881 0.00600000005215
0.0149999996647 -0.0399999991059 0.00600000005215
0.0149999996647 -0.035000000149 0.00600000005215
0.0149999996647 -0.0299999993294 0.00600000005215
0.0149999996647 -0.0250000003725 0.00600000005215
0.0149999996647 -0.019999999553 0.00600000005215
0.0149999996647 -0.0149999996647 0.00600000005215
0.0149999996647 -0.00999999977648 0.00600000005215
0.0149999996647 -0.00499999988824 0.00600000005215
0.0149999996647 -1.25000005838e-35 0.00600000005215
0.0149999996647 -0.0500000007451 0.00449999980628
0.0149999996647 -0.0450000017881 0.00449999980628
0.0149999996647 -0.0399999991059 0.00449999980628
0.0149999996647 -0.035000000149 0.00449999980628
0.0149999996647 -0.0299999993294 0.00449999980628
0.0149999996647 -0.0250000003725 0.00449999980628
0.0149999996647 -0.019999999553 0.00449999980628
0.0149999996647 -0.0149999996647 0.00449999980628
0.0149999996647 -0.00999999977648 0.00449999980628
0.0149999996647 -0.00499999988824 0.00449999980628
0.0149999996647 -1.25000005838e-35 0.00449999980628
0.0149999996647 -0.0500000007451 0.00300000002608
0.0149999996647 -0.0450000017881 0.00300000002608
0.0149999996647 -0.0399999991059 0.00300000002608
0.0149999996647 -0.035000000149 0.00300000002608
0.0149999996647 -0.0299999993294 0.00300000002608
0.0149999996647 -0.0250000003725 0.00300000002608
0.0149999996647 -0.019999999553 0.00300000002608
0.0149999996647 -0.0149999996647 0.00300000002608
0.0149999996647 -0.00999999977648 0.00300000002608
0.0149999996647 -0.00499999988824 0.00300000002608
0.0149999996647 -1.25000005838e-35 0.00300000002608
0.0149999996647 -0.0500000007451 0.00150000001304
0.0149999996647 -0.0450000017881 0.00150000001304
0.0149999996647 -0.0399999991059 0.00150000001304
0.0149999996647 -0.035000000149 0.00150000001304
0.0149999996647 -0.0299999993294 0.00150000001304
0.0149999996647 -0.0250000003725 0.00150000001304
0.0149999996647 -0.019999999553 0.00150000001304
0.0149999996647 -0.0149999996647 0.00150000001304
0.0149999996647 -0.00999999977648 0.00150000001304
0.0149999996647 -0.00499999988824 0.00150000001304
0.0149999996647 -1.25000005838e-35 0.00150000001304
0.0149999996647 -0.0500000007451 -0.0
0.0149999996647 -0.0450000017881 -0.0
0.0149999996647 -0.0399999991059 -0.0
0.0149999996647 -0.035000000149 -0.0
0.0149999996647 -0.0299999993294 -0.0
0.0149999996647 -0.0250000003725 -0.0
0.0149999996647 -0.019999999553 -0.0
0.0149999996647 -0.0149999996647 0.0
0.0149999996647 -0.00999999977648 0.0
0.0149999996647 -0.00499999988824 0.0
0.0149999996647 -6.25000029188e-36 -0.0
0.0135000003502 -0.0500000007451 0.0149999996647
0.0135000003502 -0.0450000017881 0.0149999996647
0.0135000003502 -0.0399999991059 0.0149999996647
0.0135000003502 -0.035000000149 0.0149999996647
0.0135000003502 -0.0299999993294 0.0149999996647
0.0135000003502 -0.0250000003725 0.0149999996647
0.0135000003502 -0.019999999553 0.0149999996647
0.0135000003502 -0.0149999996647 0.0149999996647
0.0135000003502 -0.00999999977648 0.0149999996647
0.0135000003502 -0.00499999988824 0.0149999996647
0.0135000003502 -1.25000005838e-35 0.0149999996647
0.0135000003502 -0.0500000007451 0.0135000003502
0.0 0.0 0.0
0.0 0.0 0.0
0.0 0.0 0.0
0.0 0.0 0.0
0.0 0.0 0.0
0.0 0.0 0.0
0.0 0.0 0.0
0.0 0.0 0.0
0.0 0.0 0.0
0.0135000003502 -2.50000011675e-35 0.0135000003502
0.0135000003502 -0.0500000007451 0.0120000001043
0.0 0.0 0.0
0.0 0.0 0.0
0.0 0.0 0.0
0.0 0.0 0.0
0.0 0.0 0.0
0.0 0.0 0.0
0.0 0.0 0.0
0.0 0.0 0.0
0.0 0.0 0.0
0.0135000003502 -2.50000011675e-35 0.0120000001043
0.0135000003502 -0.0500000007451 0.0104999998584
0.0 0.0 0.0
0.0 0.0 0.0
0.0 0.0 0.0
0.0 0.0 0.0
0.0 0.0 0.0
0.0 0.0 0.0
0.0 0.0 0.0
0.0 0.0 0.0
0.0 0.0 0.0
0.0135000003502 -2.50000011675e-35 0.0104999998584
0.0135000003502 -0.0500000007451 0.00899999961257
0.0 0.0 0.0
0.0 0.0 0.0
0.0 0.0 0.0
0.0 0.0 0.0
0.0 0.0 0.0
0.0 0.0 0.0
0.0 0.0 0.0
0.0 0.0 0.0
0.0 0.0 0.0
0.0135000003502 -2.50000011675e-35 0.00899999961257
0.0135000003502 -0.0500000007451 0.00749999983236
0.0 0.0 0.0
0.0 0.0 0.0
0.0 0.0 0.0
0.0 0.0 0.0
0.0 0.0 0.0
0.0 0.0 0.0
0.0 0.0 0.0
0.0 0.0 0.0
0.0 0.0 0.0
0.0135000003502 -2.50000011675e-35 0.00749999983236
0.0135000003502 -0.0500000007451 0.00600000005215
0.0 0.0 0.0
0.0 0.0 0.0
0.0 0.0 0.0
0.0 0.0 0.0
0.0 0.0 0.0
0.0 0.0 0.0
0.0 0.0 0.0
0.0 0.0 0.0
0.0 0.0 0.0
0.0135000003502 -2.50000011675e-35 0.00600000005215
0.0135000003502 -0.0500000007451 0.00449999980628
0.0 0.0 0.0
0.0 0.0 0.0
0.0 0.0 0.0
0.0 0.0 0.0
0.0 0.0 0.0
0.0 0.0 0.0
0.0 0.0 0.0
0.0 0.0 0.0
0.0 0.0 0.0
0.0135000003502 -2.50000011675e-35 0.00449999980628
0.0135000003502 -0.0500000007451 0.00300000002608
0.0 0.0 0.0
0.0 0.0 0.0
0.0 0.0 0.0
0.0 0.0 0.0
0.0 0.0 0.0
0.0 0.0 0.0
0.0 0.0 0.0
0.0 0.0 0.0
0.0 0.0 0.0
0.0135000003502 -2.50000011675e-35 0.00300000002608
0.0135000003502 -0.0500000007451 0.00150000001304
0.0 0.0 0.0
0.0 0.0 0.0
0.0 0.0 0.0
0.0 0.0 0.0
0.0 0.0 0.0
0.0 0.0 0.0
0.0 0.0 0.0
0.0 0.0 0.0
0.0 0.0 0.0
0.0135000003502 -2.50000011675e-35 0.00150000001304
0.0135000003502 -0.0500000007451 -0.0
0.0135000003502 -0.0450000017881 -0.0
0.0135000003502 -0.0399999991059 -0.0
0.0135000003502 -0.035000000149 -0.0
0.0135000003502 -0.0299999993294 -0.0
0.0135000003502 -0.0250000003725 -0.0
0.0135000003502 -0.019999999553 -0.0
0.0135000003502 -0.0149999996647 -0.0
0.0135000003502 -0.00999999977648 -0.0
0.0135000003502 -0.00499999988824 -0.0
0.0135000003502 -1.25000005838e-35 -0.0
0.0120000001043 -0.0500000007451 0.0149999996647
0.0120000001043 -0.0450000017881 0.0149999996647
0.0120000001043 -0.0399999991059 0.0149999996647
0.0120000001043 -0.035000000149 0.0149999996647
0.0120000001043 -0.0299999993294 0.0149999996647
0.0120000001043 -0.0250000003725 0.0149999996647
0.0120000001043 -0.019999999553 0.0149999996647
0.0120000001043 -0.0149999996647 0.0149999996647
0.0120000001043 -0.00999999977648 0.0149999996647
0.0120000001043 -0.00499999988824 0.0149999996647
0.0120000001043 -1.25000005838e-35 0.0149999996647
0.0120000001043 -0.0500000007451 0.0135000003502
0.0 0.0 0.0
0.0 0.0 0.0
0.0 0.0 0.0
0.0 0.0 0.0
0.0 0.0 0.0
0.0 0.0 0.0
0.0 0.0 0.0
0.0 0.0 0.0
0.0 0.0 0.0
0.0120000001043 -2.50000011675e-35 0.0135000003502
0.0120000001043 -0.0500000007451 0.0120000001043
0.0 0.0 0.0
0.0 0.0 0.0
0.0 0.0 0.0
0.0 0.0 0.0
0.0 0.0 0.0
0.0 0.0 0.0
0.0 0.0 0.0
0.0 0.0 0.0
0.0 0.0 0.0
0.0120000001043 -2.50000011675e-35 0.0120000001043
0.0120000001043 -0.0500000007451 0.0104999998584
0.0 0.0 0.0
0.0 0.0 0.0
0.0 0.0 0.0
0.0 0.0 0.0
0.0 0.0 0.0
0.0 0.0 0.0
0.0 0.0 0.0
0.0 0.0 0.0
0.0 0.0 0.0
0.0120000001043 -2.50000011675e-35 0.0104999998584
0.0120000001043 -0.0500000007451 0.00899999961257
0.0 0.0 0.0
0.0 0.0 0.0
0.0 0.0 0.0
0.0 0.0 0.0
0.0 0.0 0.0
0.0 0.0 0.0
0.0 0.0 0.0
0.0 0.0 0.0
0.0 0.0 0.0
0.0120000001043 -2.50000011675e-35 0.00899999961257
0.0120000001043 -0.0500000007451 0.00749999983236
0.0 0.0 0.0
0.0 0.0 0.0
0.0 0.0 0.0
0.0 0.0 0.0
0.0 0.0 0.0
0.0 0.0 0.0
0.0 0.0 0.0
0.0 0.0 0.0
0.0 0.0 0.0
0.0120000001043 -2.50000011675e-35 0.00749999983236
0.0120000001043 -0.0500000007451 0.00600000005215
0.0 0.0 0.0
0.0 0.0 0.0
0.0 0.0 0.0
0.0 0.0 0.0
0.0 0.0 0.0
0.0 0.0 0.0
0.0 0.0 0.0
0.0 0.0 0.0
0.0 0.0 0.0
0.0120000001043 -2.50000011675e-35 0.00600000005215
0.0120000001043 -0.0500000007451 0.00449999980628
0.0 0.0 0.0
0.0 0.0 0.0
0.0 0.0 0.0
0.0 0.0 0.0
0.0 0.0 0.0
0.0 0.0 0.0
0.0 0.0 0.0
0.0 0.0 0.0
0.0 0.0 0.0
0.0120000001043 -2.50000011675e-35 0.00449999980628
0.0120000001043 -0.0500000007451 0.00300000002608
0.0 0.0 0.0
0.0 0.0 0.0
0.0 0.0 0.0
0.0 0.0 0.0
0.0 0.0 0.0
0.0 0.0 0.0
0.0 0.0 0.0
0.0 0.0 0.0
0.0 0.0 0.0
0.0120000001043 -2.50000011675e-35 0.00300000002608
0.0120000001043 -0.0500000007451 0.00150000001304
0.0 0.0 0.0
0.0 0.0 0.0
0.0 0.0 0.0
0.0 0.0 0.0
0.0 0.0 0.0
0.0 0.0 0.0
0.0 0.0 0.0
0.0 0.0 0.0
0.0 0.0 0.0
0.0120000001043 -2.50000011675e-35 0.00150000001304
0.0120000001043 -0.0500000007451 -0.0
0.0120000001043 -0.0450000017881 -0.0
0.0120000001043 -0.0399999991059 -0.0
0.0120000001043 -0.035000000149 -0.0
0.0120000001043 -0.0299999993294 0.0
0.0120000001043 -0.0250000003725 -0.0
0.0120000001043 -0.019999999553 -0.0
0.0120000001043 -0.0149999996647 -0.0
0.0120000001043 -0.00999999977648 -0.0
0.0120000001043 -0.00499999988824 -0.0
0.0120000001043 -1.25000005838e-35 -0.0
0.0104999998584 -0.0500000007451 0.0149999996647
0.0104999998584 -0.0450000017881 0.0149999996647
0.0104999998584 -0.0399999991059 0.0149999996647
0.0104999998584 -0.035000000149 0.0149999996647
0.0104999998584 -0.0299999993294 0.0149999996647
0.0104999998584 -0.0250000003725 0.0149999996647
0.0104999998584 -0.019999999553 0.0149999996647
0.0104999998584 -0.0149999996647 0.0149999996647
0.0104999998584 -0.00999999977648 0.0149999996647
0.0104999998584 -0.00499999988824 0.0149999996647
0.0104999998584 -1.25000005838e-35 0.0149999996647
0.0104999998584 -0.0500000007451 0.0135000003502
0.0 0.0 0.0
0.0 0.0 0.0
0.0 0.0 0.0
0.0 0.0 0.0
0.0 0.0 0.0
0.0 0.0 0.0
0.0 0.0 0.0
0.0 0.0 0.0
0.0 0.0 0.0
0.0104999998584 -2.50000011675e-35 0.0135000003502
0.0104999998584 -0.0500000007451 0.0120000001043
0.0 0.0 0.0
0.0 0.0 0.0
0.0 0.0 0.0
0.0 0.0 0.0
0.0 0.0 0.0
0.0 0.0 0.0
0.0 0.0 0.0
0.0 0.0 0.0
0.0 0.0 0.0
0.0104999998584 -2.50000011675e-35 0.0120000001043
0.0104999998584 -0.0500000007451 0.0104999998584
0.0 0.0 0.0
0.0 0.0 0.0
0.0 0.0 0.0
0.0 0.0 0.0
0.0 0.0 0.0
0.0 0.0 0.0
0.0 0.0 0.0
0.0 0.0 0.0
0.0 0.0 0.0
0.0104999998584 -2.50000011675e-35 0.0104999998584
0.0104999998584 -0.0500000007451 0.00899999961257
0.0 0.0 0.0
0.0 0.0 0.0
0.0 0.0 0.0
0.0 0.0 0.0
0.0 0.0 0.0
0.0 0.0 0.0
0.0 0.0 0.0
0.0 0.0 0.0
0.0 0.0 0.0
0.0104999998584 -2.50000011675e-35 0.00899999961257
0.0104999998584 -0.0500000007451 0.00749999983236
0.0 0.0 0.0
0.0 0.0 0.0
0.0 0.0 0.0
0.0 0.0 0.0
0.0 0.0 0.0
0.0 0.0 0.0
0.0 0.0 0.0
0.0 0.0 0.0
0.0 0.0 0.0
0.0104999998584 -2.50000011675e-35 0.00749999983236
0.0104999998584 -0.0500000007451 0.00600000005215
0.0 0.0 0.0
0.0 0.0 0.0
0.0 0.0 0.0
0.0 0.0 0.0
0.0 0.0 0.0
0.0 0.0 0.0
0.0 0.0 0.0
0.0 0.0 0.0
0.0 0.0 0.0
0.0104999998584 -2.50000011675e-35 0.00600000005215
0.0104999998584 -0.0500000007451 0.00449999980628
0.0 0.0 0.0
0.0 0.0 0.0
0.0 0.0 0.0
0.0 0.0 0.0
0.0 0.0 0.0
0.0 0.0 0.0
0.0 0.0 0.0
0.0 0.0 0.0
0.0 0.0 0.0
0.0104999998584 -2.50000011675e-35 0.00449999980628
0.0104999998584 -0.0500000007451 0.00300000002608
0.0 0.0 0.0
0.0 0.0 0.0
0.0 0.0 0.0
0.0 0.0 0.0
0.0 0.0 0.0
0.0 0.0 0.0
0.0 0.0 0.0
0.0 0.0 0.0
0.0 0.0 0.0
0.0104999998584 -2.50000011675e-35 0.00300000002608
0.0104999998584 -0.0500000007451 0.00150000001304
0.0 0.0 0.0
0.0 0.0 0.0
0.0 0.0 0.0
0.0 0.0 0.0
0.0 0.0 0.0
0.0 0.0 0.0
0.0 0.0 0.0
0.0 0.0 0.0
0.0 0.0 0.0
0.0104999998584 -2.50000011675e-35 0.00150000001304
0.0104999998584 -0.0500000007451 -0.0
0.0104999998584 -0.0450000017881 -0.0
0.0104999998584 -0.0399999991059 -0.0
0.0104999998584 -0.035000000149 -0.0
0.0104999998584 -0.0299999993294 -0.0
0.0104999998584 -0.0250000003725 -0.0
0.0104999998584 -0.019999999553 -0.0
0.0104999998584 -0.0149999996647 -0.0
0.0104999998584 -0.00999999977648 -0.0
0.0104999998584 -0.00499999988824 -0.0
0.0104999998584 -1.25000005838e-35 -0.0
0.00899999961257 -0.0500000007451 0.0149999996647
0.00899999961257 -0.0450000017881 0.0149999996647
0.00899999961257 -0.0399999991059 0.0149999996647
0.00899999961257 -0.035000000149 0.0149999996647
0.00899999961257 -0.0299999993294 0.0149999996647
0.00899999961257 -0.0250000003725 0.0149999996647
0.00899999961257 -0.019999999553 0.0149999996647
0.00899999961257 -0.0149999996647 0.0149999996647
0.00899999961257 -0.00999999977648 0.0149999996647
0.00899999961257 -0.00499999988824 0.0149999996647
0.00899999961257 -1.25000005838e-35 0.0149999996647
0.00899999961257 -0.0500000007451 0.0135000003502
0.0 0.0 0.0
0.0 0.0 0.0
0.0 0.0 0.0
0.0 0.0 0.0
0.0 0.0 0.0
0.0 0.0 0.0
0.0 0.0 0.0
0.0 0.0 0.0
0.0 0.0 0.0
0.00899999961257 -2.50000011675e-35 0.0135000003502
0.00899999961257 -0.0500000007451 0.0120000001043
0.0 0.0 0.0
0.0 0.0 0.0
0.0 0.0 0.0
0.0 0.0 0.0
0.0 0.0 0.0
0.0 0.0 0.0
0.0 0.0 0.0
0.0 0.0 0.0
0.0 0.0 0.0
0.00899999961257 -2.50000011675e-35 0.0120000001043
0.00899999961257 -0.0500000007451 0.0104999998584
0.0 0.0 0.0
0.0 0.0 0.0
0.0 0.0 0.0
0.0 0.0 0.0
0.0 0.0 0.0
0.0 0.0 0.0
0.0 0.0 0.0
0.0 0.0 0.0
0.0 0.0 0.0
0.00899999961257 -2.50000011675e-35 0.0104999998584
0.00899999961257 -0.0500000007451 0.00899999961257
0.0 0.0 0.0
0.0 0.0 0.0
0.0 0.0 0.0
0.0 0.0 0.0
0.0 0.0 0.0
0.0 0.0 0.0
0.0 0.0 0.0
0.0 0.0 0.0
0.0 0.0 0.0
0.00899999961257 -2.50000011675e-35 0.00899999961257
0.00899999961257 -0.0500000007451 0.00749999983236
0.0 0.0 0.0
0.0 0.0 0.0
0.0 0.0 0.0
0.0 0.0 0.0
0.0 0.0 0.0
0.0 0.0 0.0
0.0 0.0 0.0
0.0 0.0 0.0
0.0 0.0 0.0
0.00899999961257 -2.50000011675e-35 0.00749999983236
0.00899999961257 -0.0500000007451 0.00600000005215
0.0 0.0 0.0
0.0 0.0 0.0
0.0 0.0 0.0
0.0 0.0 0.0
0.0 0.0 0.0
0.0 0.0 0.0
0.0 0.0 0.0
0.0 0.0 0.0
0.0 0.0 0.0
0.00899999961257 -2.50000011675e-35 0.00600000005215
0.00899999961257 -0.0500000007451 0.00449999980628
0.0 0.0 0.0
0.0 0.0 0.0
0.0 0.0 0.0
0.0 0.0 0.0
0.0 0.0 0.0
0.0 0.0 0.0
0.0 0.0 0.0
0.0 0.0 0.0
0.0 0.0 0.0
0.00899999961257 -2.50000011675e-35 0.00449999980628
0.00899999961257 -0.0500000007451 0.00300000002608
0.0 0.0 0.0
0.0 0.0 0.0
0.0 0.0 0.0
0.0 0.0 0.0
0.0 0.0 0.0
0.0 0.0 0.0
0.0 0.0 0.0
0.0 0.0 0.0
0.0 0.0 0.0
0.00899999961257 -2.50000011675e-35 0.00300000002608
0.00899999961257 -0.0500000007451 0.00150000001304
0.0 0.0 0.0
0.0 0.0 0.0
0.0 0.0 0.0
0.0 0.0 0.0
0.0 0.0 0.0
0.0 0.0 0.0
0.0 0.0 0.0
0.0 0.0 0.0
0.0 0.0 0.0
0.00899999961257 -2.50000011675e-35 0.00150000001304
0.00899999961257 -0.0500000007451 -0.0
0.00899999961257 -0.0450000017881 -0.0
0.00899999961257 -0.0399999991059 -0.0
0.00899999961257 -0.035000000149 -0.0
0.00899999961257 -0.0299999993294 -0.0
0.00899999961257 -0.0250000003725 -0.0
0.00899999961257 -0.019999999553 -0.0
0.00899999961257 -0.0149999996647 -0.0
0.00899999961257 -0.00999999977648 -0.0
0.00899999961257 -0.00499999988824 -0.0
0.00899999961257 -1.25000005838e-35 -0.0
0.00749999983236 -0.0500000007451 0.0149999996647
0.00749999983236 -0.0450000017881 0.0149999996647
0.00749999983236 -0.0399999991059 0.0149999996647
0.00749999983236 -0.035000000149 0.0149999996647
0.00749999983236 -0.0299999993294 0.0149999996647
0.00749999983236 -0.0250000003725 0.0149999996647
0.00749999983236 -0.019999999553 0.0149999996647
0.00749999983236 -0.0149999996647 0.0149999996647
0.00749999983236 -0.00999999977648 0.0149999996647
0.00749999983236 -0.00499999988824 0.0149999996647
0.00749999983236 -1.25000005838e-35 0.0149999996647
0.00749999983236 -0.0500000007451 0.0135000003502
0.0 0.0 0.0
0.0 0.0 0.0
0.0 0.0 0.0
0.0 0.0 0.0
0.0 0.0 0.0
0.0 0.0 0.0
0.0 0.0 0.0
0.0 0.0 0.0
0.0 0.0 0.0
0.00749999983236 -2.50000011675e-35 0.0135000003502
0.00749999983236 -0.0500000007451 0.0120000001043
0.0 0.0 0.0
0.0 0.0 0.0
0.0 0.0 0.0
0.0 0.0 0.0
0.0 0.0 0.0
0.0 0.0 0.0
0.0 0.0 0.0
0.0 0.0 0.0
0.0 0.0 0.0
0.00749999983236 -2.50000011675e-35 0.0120000001043
0.00749999983236 -0.0500000007451 0.0104999998584
0.0 0.0 0.0
0.0 0.0 0.0
0.0 0.0 0.0
0.0 0.0 0.0
0.0 0.0 0.0
0.0 0.0 0.0
0.0 0.0 0.0
0.0 0.0 0.0
0.0 0.0 0.0
0.00749999983236 -2.50000011675e-35 0.0104999998584
0.00749999983236 -0.0500000007451 0.00899999961257
0.0 0.0 0.0
0.0 0.0 0.0
0.0 0.0 0.0
0.0 0.0 0.0
0.0 0.0 0.0
0.0 0.0 0.0
0.0 0.0 0.0
0.0 0.0 0.0
0.0 0.0 0.0
0.00749999983236 -2.50000011675e-35 0.00899999961257
0.00749999983236 -0.0500000007451 0.00749999983236
0.0 0.0 0.0
0.0 0.0 0.0
0.0 0.0 0.0
0.0 0.0 0.0
0.0 0.0 0.0
0.0 0.0 0.0
0.0 0.0 0.0
0.0 0.0 0.0
0.0 0.0 0.0
0.00749999983236 -2.50000011675e-35 0.00749999983236
0.00749999983236 -0.0500000007451 0.00600000005215
0.0 0.0 0.0
0.0 0.0 0.0
0.0 0.0 0.0
0.0 0.0 0.0
0.0 0.0 0.0
0.0 0.0 0.0
0.0 0.0 0.0
0.0 0.0 0.0
0.0 0.0 0.0
0.00749999983236 -2.50000011675e-35 0.00600000005215
0.00749999983236 -0.0500000007451 0.00449999980628
0.0 0.0 0.0
0.0 0.0 0.0
0.0 0.0 0.0
0.0 0.0 0.0
0.0 0.0 0.0
0.0 0.0 0.0
0.0 0.0 0.0